
;
; GENERATED BY LigParGen Server
; Jorgensen Lab @ Yale University 
;
[ moleculetype ]
; Name    nrexcl
DMC_M     3

[ atoms ]
; nr  type    resnr  residue  atom  cgnr  charge     mass
1     DMC_CM  1      DMC      C00   1      0.098148   12.0110
2     DMC_OE  1      DMC      O01   1     -0.449998   15.9990
3     DMC_CC  1      DMC      C02   1      1.004995   12.0110
4     DMC_OC  1      DMC      O03   1     -0.597267   15.9990
5     DMC_OE  1      DMC      O04   1     -0.449998   15.9990
6     DMC_CM  1      DMC      C05   1      0.098148   12.0110
7     DMC_H   1      DMC      H06   1      0.035715    1.0080
8     DMC_H   1      DMC      H07   1      0.035720    1.0080
9     DMC_H   1      DMC      H08   1      0.076551    1.0080
10    DMC_H   1      DMC      H09   1      0.035718    1.0080
11    DMC_H   1      DMC      H0A   1      0.035717    1.0080
12    DMC_H   1      DMC      H0B   1      0.076551    1.0080

[ bonds ]
    2     1     1      0.1410 267776.000
    3     2     1      0.1327 179075.200
    4     3     1      0.1229 476976.000
    5     3     1      0.1327 179075.200
    6     5     1      0.1410 267776.000
    7     1     1      0.1090 284512.000
    8     1     1      0.1090 284512.000
    9     1     1      0.1090 284512.000
   10     6     1      0.1090 284512.000
   11     6     1      0.1090 284512.000
   12     6     1      0.1090 284512.000

[ angles ]
;  ai    aj    ak funct            c0            c1            c2            c3 
    1     2     3     1    116.900    694.544
    2     3     4     1    123.400    694.544
    2     3     5     1    118.180    584.923
    3     5     6     1    116.900    694.544
    2     1     7     1    109.500    292.880
    2     1     8     1    109.500    292.880
    2     1     9     1    109.500    292.880
    5     6    10     1    109.500    292.880
    5     6    11     1    109.500    292.880
    5     6    12     1    109.500    292.880
    7     1     8     1    107.800    276.144
   11     6    12     1    107.800    276.144
   10     6    12     1    107.800    276.144
    8     1     9     1    107.800    276.144
    7     1     9     1    107.800    276.144
    4     3     5     1    123.400    694.544
   10     6    11     1    107.800    276.144

[ dihedrals ]
; IMPROPER DIHEDRAL ANGLES 
;  ai    aj    ak    al funct            c0            c1            c2            c3            c4            c5
     5     3     2     4    4        180.000     43.932     2  

[ dihedrals ]
; PROPER DIHEDRAL ANGLES
;  ai    aj    ak    al funct            c0            c1            c2            c3            c4            c5
    6    5    3    4        3      21.439   0.000  -21.439  -0.000  -0.000   0.000
    6    5    3    2        3      31.206  -9.768  -21.439  -0.000  -0.000   0.000
    7    1    2    3        3       0.414   1.243   0.000  -1.657  -0.000   0.000
   10    6    5    3        3       0.414   1.243   0.000  -1.657  -0.000   0.000
   12    6    5    3        3       0.414   1.243   0.000  -1.657  -0.000   0.000
   11    6    5    3        3       0.414   1.243   0.000  -1.657  -0.000   0.000
    9    1    2    3        3       0.414   1.243   0.000  -1.657  -0.000   0.000
    8    1    2    3        3       0.414   1.243   0.000  -1.657  -0.000   0.000
    4    3    2    1        3      21.439   0.000  -21.439  -0.000  -0.000   0.000
    5    3    2    1        3      31.206  -9.768  -21.439  -0.000  -0.000   0.000

[ pairs ]
     1     4    1
     1     5    1
     2     6    1
     4     6    1
     3     7    1
     3     8    1
     3     9    1
     3    10    1
     3    11    1
     3    12    1

